+ 1.0000 25 24 cbr 210 ------- 0 25.0 26.0 0 0 19.10 72.90 0.00 90.00
- 1.0000 25 24 cbr 210 ------- 0 25.0 26.0 0 0 19.10 72.90 0.00 90.00
r 1.1230 25 24 cbr 210 ------- 0 25.0 26.0 0 0 19.10 72.90 0.00 90.00
+ 1.1230 24 26 cbr 210 ------- 0 25.0 26.0 0 0 0.00 90.00 39.90 116.40
- 1.1230 24 26 cbr 210 ------- 0 25.0 26.0 0 0 0.00 90.00 39.90 116.40
r 1.2512 24 26 cbr 210 ------- 0 25.0 26.0 0 0 0.00 90.00 39.90 116.40
+ 10 32 26 cbr 210 ------- 0 32.0 29.0 0 1
- 10 32 26 cbr 210 ------- 0 32.0 29.0 0 1
r 10.002336 32 26 cbr 210 ------- 0 32.0 29.0 0 1
+ 10.0023 26 24 cbr 210 ------- 0 32.0 29.0 0 1 39.90 116.40 0.00 90.00
- 10.0023 26 24 cbr 210 ------- 0 32.0 29.0 0 1 39.90 116.40 0.00 90.00
r 10.1305 26 24 cbr 210 ------- 0 32.0 29.0 0 1 39.90 116.40 0.00 90.00
+ 10.1305 24 25 cbr 210 ------- 0 32.0 29.0 0 1 0.00 90.00 19.10 72.90
- 10.1305 24 25 cbr 210 ------- 0 32.0 29.0 0 1 0.00 90.00 19.10 72.90
r 10.2535 24 25 cbr 210 ------- 0 32.0 29.0 0 1 0.00 90.00 19.10 72.90
+ 10.253487 25 30 cbr 210 ------- 0 32.0 29.0 0 1
- 10.253487 25 30 cbr 210 ------- 0 32.0 29.0 0 1
r 10.255823 25 30 cbr 210 ------- 0 32.0 29.0 0 1
+ 10.255823 30 29 cbr 210 ------- 0 32.0 29.0 0 1
- 10.255823 30 29 cbr 210 ------- 0 32.0 29.0 0 1
r 10.258159 30 29 cbr 210 ------- 0 32.0 29.0 0 1
+ 61.0100 25 24 cbr 210 ------- 0 25.0 26.0 1 2 19.10 72.90 0.00 90.00
- 61.0100 25 24 cbr 210 ------- 0 25.0 26.0 1 2 19.10 72.90 0.00 90.00
r 61.1330 25 24 cbr 210 ------- 0 25.0 26.0 1 2 19.10 72.90 0.00 90.00
+ 61.1330 24 26 cbr 210 ------- 0 25.0 26.0 1 2 0.00 90.00 39.90 116.40
- 61.1330 24 26 cbr 210 ------- 0 25.0 26.0 1 2 0.00 90.00 39.90 116.40
r 61.2612 24 26 cbr 210 ------- 0 25.0 26.0 1 2 0.00 90.00 39.90 116.40
+ 121.0200 25 24 cbr 210 ------- 0 25.0 26.0 2 3 19.10 72.90 0.00 90.00
- 121.0200 25 24 cbr 210 ------- 0 25.0 26.0 2 3 19.10 72.90 0.00 90.00
r 121.1430 25 24 cbr 210 ------- 0 25.0 26.0 2 3 19.10 72.90 0.00 90.00
+ 121.1430 24 26 cbr 210 ------- 0 25.0 26.0 2 3 0.00 90.00 39.90 116.40
- 121.1430 24 26 cbr 210 ------- 0 25.0 26.0 2 3 0.00 90.00 39.90 116.40
r 121.2712 24 26 cbr 210 ------- 0 25.0 26.0 2 3 0.00 90.00 39.90 116.40
+ 181.0300 25 24 cbr 210 ------- 0 25.0 26.0 3 4 19.10 72.90 0.00 90.00
- 181.0300 25 24 cbr 210 ------- 0 25.0 26.0 3 4 19.10 72.90 0.00 90.00
r 181.1530 25 24 cbr 210 ------- 0 25.0 26.0 3 4 19.10 72.90 0.00 90.00
+ 181.1530 24 26 cbr 210 ------- 0 25.0 26.0 3 4 0.00 90.00 39.90 116.40
- 181.1530 24 26 cbr 210 ------- 0 25.0 26.0 3 4 0.00 90.00 39.90 116.40
r 181.2812 24 26 cbr 210 ------- 0 25.0 26.0 3 4 0.00 90.00 39.90 116.40
+ 241.0400 25 24 cbr 210 ------- 0 25.0 26.0 4 5 19.10 72.90 0.00 90.00
- 241.0400 25 24 cbr 210 ------- 0 25.0 26.0 4 5 19.10 72.90 0.00 90.00
r 241.1630 25 24 cbr 210 ------- 0 25.0 26.0 4 5 19.10 72.90 0.00 90.00
+ 241.1630 24 26 cbr 210 ------- 0 25.0 26.0 4 5 0.00 90.00 39.90 116.40
- 241.1630 24 26 cbr 210 ------- 0 25.0 26.0 4 5 0.00 90.00 39.90 116.40
r 241.2912 24 26 cbr 210 ------- 0 25.0 26.0 4 5 0.00 90.00 39.90 116.40
+ 301.0500 25 24 cbr 210 ------- 0 25.0 26.0 5 6 19.10 72.90 0.00 90.00
- 301.0500 25 24 cbr 210 ------- 0 25.0 26.0 5 6 19.10 72.90 0.00 90.00
r 301.1730 25 24 cbr 210 ------- 0 25.0 26.0 5 6 19.10 72.90 0.00 90.00
+ 301.1730 24 26 cbr 210 ------- 0 25.0 26.0 5 6 0.00 90.00 39.90 116.40
- 301.1730 24 26 cbr 210 ------- 0 25.0 26.0 5 6 0.00 90.00 39.90 116.40
r 301.3012 24 26 cbr 210 ------- 0 25.0 26.0 5 6 0.00 90.00 39.90 116.40
+ 305.0000 27 -1 cbr 210 ------- 1 27.0 28.0 0 7 0.00 10.00 -999.00 -999.00
- 305.0000 27 -1 cbr 210 ------- 1 27.0 28.0 0 7 0.00 10.00 -999.00 -999.00
d 305.0000 27 -1 cbr 210 ------- 1 27.0 28.0 0 7 0.00 10.00 -999.00 -999.00
+ 310 32 26 cbr 210 ------- 0 32.0 29.0 1 8
- 310 32 26 cbr 210 ------- 0 32.0 29.0 1 8
r 310.002336 32 26 cbr 210 ------- 0 32.0 29.0 1 8
+ 310.0023 26 24 cbr 210 ------- 0 32.0 29.0 1 8 39.90 116.40 0.00 90.00
- 310.0023 26 24 cbr 210 ------- 0 32.0 29.0 1 8 39.90 116.40 0.00 90.00
r 310.1305 26 24 cbr 210 ------- 0 32.0 29.0 1 8 39.90 116.40 0.00 90.00
+ 310.1305 24 25 cbr 210 ------- 0 32.0 29.0 1 8 0.00 90.00 19.10 72.90
- 310.1305 24 25 cbr 210 ------- 0 32.0 29.0 1 8 0.00 90.00 19.10 72.90
r 310.2535 24 25 cbr 210 ------- 0 32.0 29.0 1 8 0.00 90.00 19.10 72.90
+ 310.253487 25 30 cbr 210 ------- 0 32.0 29.0 1 8
- 310.253487 25 30 cbr 210 ------- 0 32.0 29.0 1 8
r 310.255823 25 30 cbr 210 ------- 0 32.0 29.0 1 8
+ 310.255823 30 29 cbr 210 ------- 0 32.0 29.0 1 8
- 310.255823 30 29 cbr 210 ------- 0 32.0 29.0 1 8
r 310.258159 30 29 cbr 210 ------- 0 32.0 29.0 1 8
+ 361.0600 25 24 cbr 210 ------- 0 25.0 26.0 6 9 19.10 72.90 0.00 90.00
- 361.0600 25 24 cbr 210 ------- 0 25.0 26.0 6 9 19.10 72.90 0.00 90.00
r 361.1830 25 24 cbr 210 ------- 0 25.0 26.0 6 9 19.10 72.90 0.00 90.00
+ 361.1830 24 26 cbr 210 ------- 0 25.0 26.0 6 9 0.00 90.00 39.90 116.40
- 361.1830 24 26 cbr 210 ------- 0 25.0 26.0 6 9 0.00 90.00 39.90 116.40
r 361.3112 24 26 cbr 210 ------- 0 25.0 26.0 6 9 0.00 90.00 39.90 116.40
+ 395.5000 27 -1 cbr 210 ------- 1 27.0 28.0 1 10 0.00 10.00 -999.00 -999.00
- 395.5000 27 -1 cbr 210 ------- 1 27.0 28.0 1 10 0.00 10.00 -999.00 -999.00
d 395.5000 27 -1 cbr 210 ------- 1 27.0 28.0 1 10 0.00 10.00 -999.00 -999.00
+ 421.0700 25 24 cbr 210 ------- 0 25.0 26.0 7 11 19.10 72.90 0.00 90.00
- 421.0700 25 24 cbr 210 ------- 0 25.0 26.0 7 11 19.10 72.90 0.00 90.00
r 421.1930 25 24 cbr 210 ------- 0 25.0 26.0 7 11 19.10 72.90 0.00 90.00
+ 421.1930 24 26 cbr 210 ------- 0 25.0 26.0 7 11 0.00 90.00 39.90 116.40
- 421.1930 24 26 cbr 210 ------- 0 25.0 26.0 7 11 0.00 90.00 39.90 116.40
r 421.3212 24 26 cbr 210 ------- 0 25.0 26.0 7 11 0.00 90.00 39.90 116.40
+ 481.0800 25 24 cbr 210 ------- 0 25.0 26.0 8 12 19.10 72.90 0.00 90.00
- 481.0800 25 24 cbr 210 ------- 0 25.0 26.0 8 12 19.10 72.90 0.00 90.00
r 481.2030 25 24 cbr 210 ------- 0 25.0 26.0 8 12 19.10 72.90 0.00 90.00
+ 481.2030 24 26 cbr 210 ------- 0 25.0 26.0 8 12 0.00 90.00 39.90 116.40
- 481.2030 24 26 cbr 210 ------- 0 25.0 26.0 8 12 0.00 90.00 39.90 116.40
r 481.3312 24 26 cbr 210 ------- 0 25.0 26.0 8 12 0.00 90.00 39.90 116.40
+ 486.0000 27 -1 cbr 210 ------- 1 27.0 28.0 2 13 0.00 10.00 -999.00 -999.00
- 486.0000 27 -1 cbr 210 ------- 1 27.0 28.0 2 13 0.00 10.00 -999.00 -999.00
d 486.0000 27 -1 cbr 210 ------- 1 27.0 28.0 2 13 0.00 10.00 -999.00 -999.00
+ 541.0900 25 24 cbr 210 ------- 0 25.0 26.0 9 14 19.10 72.90 0.00 90.00
- 541.0900 25 24 cbr 210 ------- 0 25.0 26.0 9 14 19.10 72.90 0.00 90.00
r 541.2130 25 24 cbr 210 ------- 0 25.0 26.0 9 14 19.10 72.90 0.00 90.00
+ 541.2130 24 26 cbr 210 ------- 0 25.0 26.0 9 14 0.00 90.00 39.90 116.40
- 541.2130 24 26 cbr 210 ------- 0 25.0 26.0 9 14 0.00 90.00 39.90 116.40
r 541.3412 24 26 cbr 210 ------- 0 25.0 26.0 9 14 0.00 90.00 39.90 116.40
+ 576.5000 27 -1 cbr 210 ------- 1 27.0 28.0 3 15 0.00 10.00 -999.00 -999.00
- 576.5000 27 -1 cbr 210 ------- 1 27.0 28.0 3 15 0.00 10.00 -999.00 -999.00
d 576.5000 27 -1 cbr 210 ------- 1 27.0 28.0 3 15 0.00 10.00 -999.00 -999.00
+ 601.1000 25 24 cbr 210 ------- 0 25.0 26.0 10 16 19.10 72.90 0.00 90.00
- 601.1000 25 24 cbr 210 ------- 0 25.0 26.0 10 16 19.10 72.90 0.00 90.00
r 601.2230 25 24 cbr 210 ------- 0 25.0 26.0 10 16 19.10 72.90 0.00 90.00
+ 601.2230 24 26 cbr 210 ------- 0 25.0 26.0 10 16 0.00 90.00 39.90 116.40
- 601.2230 24 26 cbr 210 ------- 0 25.0 26.0 10 16 0.00 90.00 39.90 116.40
r 601.3512 24 26 cbr 210 ------- 0 25.0 26.0 10 16 0.00 90.00 39.90 116.40
+ 610 32 26 cbr 210 ------- 0 32.0 29.0 2 17
- 610 32 26 cbr 210 ------- 0 32.0 29.0 2 17
r 610.002336 32 26 cbr 210 ------- 0 32.0 29.0 2 17
+ 610.0023 26 24 cbr 210 ------- 0 32.0 29.0 2 17 39.90 116.40 0.00 90.00
- 610.0023 26 24 cbr 210 ------- 0 32.0 29.0 2 17 39.90 116.40 0.00 90.00
r 610.1305 26 24 cbr 210 ------- 0 32.0 29.0 2 17 39.90 116.40 0.00 90.00
+ 610.1305 24 25 cbr 210 ------- 0 32.0 29.0 2 17 0.00 90.00 19.10 72.90
- 610.1305 24 25 cbr 210 ------- 0 32.0 29.0 2 17 0.00 90.00 19.10 72.90
r 610.2535 24 25 cbr 210 ------- 0 32.0 29.0 2 17 0.00 90.00 19.10 72.90
+ 610.253487 25 30 cbr 210 ------- 0 32.0 29.0 2 17
- 610.253487 25 30 cbr 210 ------- 0 32.0 29.0 2 17
r 610.255823 25 30 cbr 210 ------- 0 32.0 29.0 2 17
+ 610.255823 30 29 cbr 210 ------- 0 32.0 29.0 2 17
- 610.255823 30 29 cbr 210 ------- 0 32.0 29.0 2 17
r 610.258159 30 29 cbr 210 ------- 0 32.0 29.0 2 17
+ 661.1100 25 24 cbr 210 ------- 0 25.0 26.0 11 18 19.10 72.90 0.00 90.00
- 661.1100 25 24 cbr 210 ------- 0 25.0 26.0 11 18 19.10 72.90 0.00 90.00
r 661.2330 25 24 cbr 210 ------- 0 25.0 26.0 11 18 19.10 72.90 0.00 90.00
+ 661.2330 24 26 cbr 210 ------- 0 25.0 26.0 11 18 0.00 90.00 39.90 116.40
- 661.2330 24 26 cbr 210 ------- 0 25.0 26.0 11 18 0.00 90.00 39.90 116.40
r 661.3612 24 26 cbr 210 ------- 0 25.0 26.0 11 18 0.00 90.00 39.90 116.40
+ 667.0000 27 -1 cbr 210 ------- 1 27.0 28.0 4 19 0.00 10.00 -999.00 -999.00
- 667.0000 27 -1 cbr 210 ------- 1 27.0 28.0 4 19 0.00 10.00 -999.00 -999.00
d 667.0000 27 -1 cbr 210 ------- 1 27.0 28.0 4 19 0.00 10.00 -999.00 -999.00
+ 721.1200 25 24 cbr 210 ------- 0 25.0 26.0 12 20 19.10 72.90 0.00 90.00
- 721.1200 25 24 cbr 210 ------- 0 25.0 26.0 12 20 19.10 72.90 0.00 90.00
r 721.2430 25 24 cbr 210 ------- 0 25.0 26.0 12 20 19.10 72.90 0.00 90.00
+ 721.2430 24 26 cbr 210 ------- 0 25.0 26.0 12 20 0.00 90.00 39.90 116.40
- 721.2430 24 26 cbr 210 ------- 0 25.0 26.0 12 20 0.00 90.00 39.90 116.40
r 721.3712 24 26 cbr 210 ------- 0 25.0 26.0 12 20 0.00 90.00 39.90 116.40
+ 757.5000 27 -1 cbr 210 ------- 1 27.0 28.0 5 21 0.00 10.00 -999.00 -999.00
- 757.5000 27 -1 cbr 210 ------- 1 27.0 28.0 5 21 0.00 10.00 -999.00 -999.00
d 757.5000 27 -1 cbr 210 ------- 1 27.0 28.0 5 21 0.00 10.00 -999.00 -999.00
+ 781.1300 25 24 cbr 210 ------- 0 25.0 26.0 13 22 19.10 72.90 0.00 90.00
- 781.1300 25 24 cbr 210 ------- 0 25.0 26.0 13 22 19.10 72.90 0.00 90.00
r 781.2530 25 24 cbr 210 ------- 0 25.0 26.0 13 22 19.10 72.90 0.00 90.00
+ 781.2530 24 26 cbr 210 ------- 0 25.0 26.0 13 22 0.00 90.00 39.90 116.40
- 781.2530 24 26 cbr 210 ------- 0 25.0 26.0 13 22 0.00 90.00 39.90 116.40
r 781.3812 24 26 cbr 210 ------- 0 25.0 26.0 13 22 0.00 90.00 39.90 116.40
+ 841.1400 25 24 cbr 210 ------- 0 25.0 26.0 14 23 19.10 72.90 0.00 90.00
- 841.1400 25 24 cbr 210 ------- 0 25.0 26.0 14 23 19.10 72.90 0.00 90.00
r 841.2630 25 24 cbr 210 ------- 0 25.0 26.0 14 23 19.10 72.90 0.00 90.00
+ 841.2630 24 26 cbr 210 ------- 0 25.0 26.0 14 23 0.00 90.00 39.90 116.40
- 841.2630 24 26 cbr 210 ------- 0 25.0 26.0 14 23 0.00 90.00 39.90 116.40
r 841.3912 24 26 cbr 210 ------- 0 25.0 26.0 14 23 0.00 90.00 39.90 116.40
+ 848.0000 27 -1 cbr 210 ------- 1 27.0 28.0 6 24 0.00 10.00 -999.00 -999.00
- 848.0000 27 -1 cbr 210 ------- 1 27.0 28.0 6 24 0.00 10.00 -999.00 -999.00
d 848.0000 27 -1 cbr 210 ------- 1 27.0 28.0 6 24 0.00 10.00 -999.00 -999.00
+ 901.1500 25 24 cbr 210 ------- 0 25.0 26.0 15 25 19.10 72.90 0.00 90.00
- 901.1500 25 24 cbr 210 ------- 0 25.0 26.0 15 25 19.10 72.90 0.00 90.00
r 901.2730 25 24 cbr 210 ------- 0 25.0 26.0 15 25 19.10 72.90 0.00 90.00
+ 901.2730 24 26 cbr 210 ------- 0 25.0 26.0 15 25 0.00 90.00 39.90 116.40
- 901.2730 24 26 cbr 210 ------- 0 25.0 26.0 15 25 0.00 90.00 39.90 116.40
r 901.4012 24 26 cbr 210 ------- 0 25.0 26.0 15 25 0.00 90.00 39.90 116.40
+ 910 32 26 cbr 210 ------- 0 32.0 29.0 3 26
- 910 32 26 cbr 210 ------- 0 32.0 29.0 3 26
r 910.002336 32 26 cbr 210 ------- 0 32.0 29.0 3 26
+ 910.0023 26 24 cbr 210 ------- 0 32.0 29.0 3 26 39.90 116.40 0.00 90.00
- 910.0023 26 24 cbr 210 ------- 0 32.0 29.0 3 26 39.90 116.40 0.00 90.00
r 910.1305 26 24 cbr 210 ------- 0 32.0 29.0 3 26 39.90 116.40 0.00 90.00
+ 910.1305 24 25 cbr 210 ------- 0 32.0 29.0 3 26 0.00 90.00 19.10 72.90
- 910.1305 24 25 cbr 210 ------- 0 32.0 29.0 3 26 0.00 90.00 19.10 72.90
r 910.2535 24 25 cbr 210 ------- 0 32.0 29.0 3 26 0.00 90.00 19.10 72.90
+ 910.253487 25 30 cbr 210 ------- 0 32.0 29.0 3 26
- 910.253487 25 30 cbr 210 ------- 0 32.0 29.0 3 26
r 910.255823 25 30 cbr 210 ------- 0 32.0 29.0 3 26
+ 910.255823 30 29 cbr 210 ------- 0 32.0 29.0 3 26
- 910.255823 30 29 cbr 210 ------- 0 32.0 29.0 3 26
r 910.258159 30 29 cbr 210 ------- 0 32.0 29.0 3 26
+ 938.5000 27 -1 cbr 210 ------- 1 27.0 28.0 7 27 0.00 10.00 -999.00 -999.00
- 938.5000 27 -1 cbr 210 ------- 1 27.0 28.0 7 27 0.00 10.00 -999.00 -999.00
d 938.5000 27 -1 cbr 210 ------- 1 27.0 28.0 7 27 0.00 10.00 -999.00 -999.00
+ 961.1600 25 24 cbr 210 ------- 0 25.0 26.0 16 28 19.10 72.90 0.00 90.00
- 961.1600 25 24 cbr 210 ------- 0 25.0 26.0 16 28 19.10 72.90 0.00 90.00
r 961.2830 25 24 cbr 210 ------- 0 25.0 26.0 16 28 19.10 72.90 0.00 90.00
+ 961.2830 24 26 cbr 210 ------- 0 25.0 26.0 16 28 0.00 90.00 39.90 116.40
- 961.2830 24 26 cbr 210 ------- 0 25.0 26.0 16 28 0.00 90.00 39.90 116.40
r 961.4112 24 26 cbr 210 ------- 0 25.0 26.0 16 28 0.00 90.00 39.90 116.40
+ 1021.1700 25 24 cbr 210 ------- 0 25.0 26.0 17 29 19.10 72.90 0.00 90.00
- 1021.1700 25 24 cbr 210 ------- 0 25.0 26.0 17 29 19.10 72.90 0.00 90.00
r 1021.2930 25 24 cbr 210 ------- 0 25.0 26.0 17 29 19.10 72.90 0.00 90.00
+ 1021.2930 24 26 cbr 210 ------- 0 25.0 26.0 17 29 0.00 90.00 39.90 116.40
- 1021.2930 24 26 cbr 210 ------- 0 25.0 26.0 17 29 0.00 90.00 39.90 116.40
r 1021.4212 24 26 cbr 210 ------- 0 25.0 26.0 17 29 0.00 90.00 39.90 116.40
+ 1029.0000 27 -1 cbr 210 ------- 1 27.0 28.0 8 30 0.00 10.00 -999.00 -999.00
- 1029.0000 27 -1 cbr 210 ------- 1 27.0 28.0 8 30 0.00 10.00 -999.00 -999.00
d 1029.0000 27 -1 cbr 210 ------- 1 27.0 28.0 8 30 0.00 10.00 -999.00 -999.00
+ 1081.1800 25 24 cbr 210 ------- 0 25.0 26.0 18 31 19.10 72.90 0.00 90.00
- 1081.1800 25 24 cbr 210 ------- 0 25.0 26.0 18 31 19.10 72.90 0.00 90.00
r 1081.3030 25 24 cbr 210 ------- 0 25.0 26.0 18 31 19.10 72.90 0.00 90.00
+ 1081.3030 24 26 cbr 210 ------- 0 25.0 26.0 18 31 0.00 90.00 39.90 116.40
- 1081.3030 24 26 cbr 210 ------- 0 25.0 26.0 18 31 0.00 90.00 39.90 116.40
r 1081.4312 24 26 cbr 210 ------- 0 25.0 26.0 18 31 0.00 90.00 39.90 116.40
+ 1119.5000 27 -1 cbr 210 ------- 1 27.0 28.0 9 32 0.00 10.00 -999.00 -999.00
- 1119.5000 27 -1 cbr 210 ------- 1 27.0 28.0 9 32 0.00 10.00 -999.00 -999.00
d 1119.5000 27 -1 cbr 210 ------- 1 27.0 28.0 9 32 0.00 10.00 -999.00 -999.00
+ 1141.1900 25 24 cbr 210 ------- 0 25.0 26.0 19 33 19.10 72.90 0.00 90.00
- 1141.1900 25 24 cbr 210 ------- 0 25.0 26.0 19 33 19.10 72.90 0.00 90.00
r 1141.3130 25 24 cbr 210 ------- 0 25.0 26.0 19 33 19.10 72.90 0.00 90.00
+ 1141.3130 24 26 cbr 210 ------- 0 25.0 26.0 19 33 0.00 90.00 39.90 116.40
- 1141.3130 24 26 cbr 210 ------- 0 25.0 26.0 19 33 0.00 90.00 39.90 116.40
r 1141.4412 24 26 cbr 210 ------- 0 25.0 26.0 19 33 0.00 90.00 39.90 116.40
+ 1201.2000 25 24 cbr 210 ------- 0 25.0 26.0 20 34 19.10 72.90 0.00 90.00
- 1201.2000 25 24 cbr 210 ------- 0 25.0 26.0 20 34 19.10 72.90 0.00 90.00
r 1201.3230 25 24 cbr 210 ------- 0 25.0 26.0 20 34 19.10 72.90 0.00 90.00
+ 1201.3230 24 26 cbr 210 ------- 0 25.0 26.0 20 34 0.00 90.00 39.90 116.40
- 1201.3230 24 26 cbr 210 ------- 0 25.0 26.0 20 34 0.00 90.00 39.90 116.40
r 1201.4512 24 26 cbr 210 ------- 0 25.0 26.0 20 34 0.00 90.00 39.90 116.40
+ 1210 32 26 cbr 210 ------- 0 32.0 29.0 4 35
- 1210 32 26 cbr 210 ------- 0 32.0 29.0 4 35
+ 1210.0000 27 -1 cbr 210 ------- 1 27.0 28.0 10 36 0.00 10.00 -999.00 -999.00
- 1210.0000 27 -1 cbr 210 ------- 1 27.0 28.0 10 36 0.00 10.00 -999.00 -999.00
d 1210.0000 27 -1 cbr 210 ------- 1 27.0 28.0 10 36 0.00 10.00 -999.00 -999.00
r 1210.002336 32 26 cbr 210 ------- 0 32.0 29.0 4 35
+ 1210.0023 26 24 cbr 210 ------- 0 32.0 29.0 4 35 39.90 116.40 0.00 90.00
- 1210.0023 26 24 cbr 210 ------- 0 32.0 29.0 4 35 39.90 116.40 0.00 90.00
r 1210.1305 26 24 cbr 210 ------- 0 32.0 29.0 4 35 39.90 116.40 0.00 90.00
+ 1210.1305 24 25 cbr 210 ------- 0 32.0 29.0 4 35 0.00 90.00 19.10 72.90
- 1210.1305 24 25 cbr 210 ------- 0 32.0 29.0 4 35 0.00 90.00 19.10 72.90
r 1210.2535 24 25 cbr 210 ------- 0 32.0 29.0 4 35 0.00 90.00 19.10 72.90
+ 1210.253487 25 30 cbr 210 ------- 0 32.0 29.0 4 35
- 1210.253487 25 30 cbr 210 ------- 0 32.0 29.0 4 35
r 1210.255823 25 30 cbr 210 ------- 0 32.0 29.0 4 35
+ 1210.255823 30 29 cbr 210 ------- 0 32.0 29.0 4 35
- 1210.255823 30 29 cbr 210 ------- 0 32.0 29.0 4 35
r 1210.258159 30 29 cbr 210 ------- 0 32.0 29.0 4 35
+ 1261.2100 25 24 cbr 210 ------- 0 25.0 26.0 21 37 19.10 72.90 0.00 90.00
- 1261.2100 25 24 cbr 210 ------- 0 25.0 26.0 21 37 19.10 72.90 0.00 90.00
r 1261.3330 25 24 cbr 210 ------- 0 25.0 26.0 21 37 19.10 72.90 0.00 90.00
+ 1261.3330 24 26 cbr 210 ------- 0 25.0 26.0 21 37 0.00 90.00 39.90 116.40
- 1261.3330 24 26 cbr 210 ------- 0 25.0 26.0 21 37 0.00 90.00 39.90 116.40
r 1261.4612 24 26 cbr 210 ------- 0 25.0 26.0 21 37 0.00 90.00 39.90 116.40
+ 1300.5000 27 -1 cbr 210 ------- 1 27.0 28.0 11 38 0.00 10.00 -999.00 -999.00
- 1300.5000 27 -1 cbr 210 ------- 1 27.0 28.0 11 38 0.00 10.00 -999.00 -999.00
d 1300.5000 27 -1 cbr 210 ------- 1 27.0 28.0 11 38 0.00 10.00 -999.00 -999.00
+ 1321.2200 25 24 cbr 210 ------- 0 25.0 26.0 22 39 19.10 72.90 0.00 90.00
- 1321.2200 25 24 cbr 210 ------- 0 25.0 26.0 22 39 19.10 72.90 0.00 90.00
r 1321.3430 25 24 cbr 210 ------- 0 25.0 26.0 22 39 19.10 72.90 0.00 90.00
+ 1321.3430 24 26 cbr 210 ------- 0 25.0 26.0 22 39 0.00 90.00 39.90 116.40
- 1321.3430 24 26 cbr 210 ------- 0 25.0 26.0 22 39 0.00 90.00 39.90 116.40
r 1321.4712 24 26 cbr 210 ------- 0 25.0 26.0 22 39 0.00 90.00 39.90 116.40
+ 1381.2300 25 24 cbr 210 ------- 0 25.0 26.0 23 40 19.10 72.90 0.00 90.00
- 1381.2300 25 24 cbr 210 ------- 0 25.0 26.0 23 40 19.10 72.90 0.00 90.00
r 1381.3530 25 24 cbr 210 ------- 0 25.0 26.0 23 40 19.10 72.90 0.00 90.00
+ 1381.3530 24 26 cbr 210 ------- 0 25.0 26.0 23 40 0.00 90.00 39.90 116.40
- 1381.3530 24 26 cbr 210 ------- 0 25.0 26.0 23 40 0.00 90.00 39.90 116.40
r 1381.4812 24 26 cbr 210 ------- 0 25.0 26.0 23 40 0.00 90.00 39.90 116.40
+ 1391.0000 27 -1 cbr 210 ------- 1 27.0 28.0 12 41 0.00 10.00 -999.00 -999.00
- 1391.0000 27 -1 cbr 210 ------- 1 27.0 28.0 12 41 0.00 10.00 -999.00 -999.00
d 1391.0000 27 -1 cbr 210 ------- 1 27.0 28.0 12 41 0.00 10.00 -999.00 -999.00
+ 1441.2400 25 24 cbr 210 ------- 0 25.0 26.0 24 42 19.10 72.90 0.00 90.00
- 1441.2400 25 24 cbr 210 ------- 0 25.0 26.0 24 42 19.10 72.90 0.00 90.00
r 1441.3630 25 24 cbr 210 ------- 0 25.0 26.0 24 42 19.10 72.90 0.00 90.00
+ 1441.3630 24 26 cbr 210 ------- 0 25.0 26.0 24 42 0.00 90.00 39.90 116.40
- 1441.3630 24 26 cbr 210 ------- 0 25.0 26.0 24 42 0.00 90.00 39.90 116.40
r 1441.4912 24 26 cbr 210 ------- 0 25.0 26.0 24 42 0.00 90.00 39.90 116.40
+ 1481.5000 27 -1 cbr 210 ------- 1 27.0 28.0 13 43 0.00 10.00 -999.00 -999.00
- 1481.5000 27 -1 cbr 210 ------- 1 27.0 28.0 13 43 0.00 10.00 -999.00 -999.00
d 1481.5000 27 -1 cbr 210 ------- 1 27.0 28.0 13 43 0.00 10.00 -999.00 -999.00
+ 1501.2500 25 24 cbr 210 ------- 0 25.0 26.0 25 44 19.10 72.90 0.00 90.00
- 1501.2500 25 24 cbr 210 ------- 0 25.0 26.0 25 44 19.10 72.90 0.00 90.00
r 1501.3730 25 24 cbr 210 ------- 0 25.0 26.0 25 44 19.10 72.90 0.00 90.00
+ 1501.3730 24 26 cbr 210 ------- 0 25.0 26.0 25 44 0.00 90.00 39.90 116.40
- 1501.3730 24 26 cbr 210 ------- 0 25.0 26.0 25 44 0.00 90.00 39.90 116.40
r 1501.5012 24 26 cbr 210 ------- 0 25.0 26.0 25 44 0.00 90.00 39.90 116.40
+ 1510 32 26 cbr 210 ------- 0 32.0 29.0 5 45
- 1510 32 26 cbr 210 ------- 0 32.0 29.0 5 45
r 1510.002336 32 26 cbr 210 ------- 0 32.0 29.0 5 45
+ 1510.0023 26 24 cbr 210 ------- 0 32.0 29.0 5 45 39.90 116.40 0.00 90.00
- 1510.0023 26 24 cbr 210 ------- 0 32.0 29.0 5 45 39.90 116.40 0.00 90.00
r 1510.1305 26 24 cbr 210 ------- 0 32.0 29.0 5 45 39.90 116.40 0.00 90.00
+ 1510.1305 24 25 cbr 210 ------- 0 32.0 29.0 5 45 0.00 90.00 19.10 72.90
- 1510.1305 24 25 cbr 210 ------- 0 32.0 29.0 5 45 0.00 90.00 19.10 72.90
r 1510.2535 24 25 cbr 210 ------- 0 32.0 29.0 5 45 0.00 90.00 19.10 72.90
+ 1510.253487 25 30 cbr 210 ------- 0 32.0 29.0 5 45
- 1510.253487 25 30 cbr 210 ------- 0 32.0 29.0 5 45
r 1510.255823 25 30 cbr 210 ------- 0 32.0 29.0 5 45
+ 1510.255823 30 29 cbr 210 ------- 0 32.0 29.0 5 45
- 1510.255823 30 29 cbr 210 ------- 0 32.0 29.0 5 45
r 1510.258159 30 29 cbr 210 ------- 0 32.0 29.0 5 45
+ 1561.2600 25 24 cbr 210 ------- 0 25.0 26.0 26 46 19.10 72.90 0.00 90.00
- 1561.2600 25 24 cbr 210 ------- 0 25.0 26.0 26 46 19.10 72.90 0.00 90.00
r 1561.3830 25 24 cbr 210 ------- 0 25.0 26.0 26 46 19.10 72.90 0.00 90.00
+ 1561.3830 24 26 cbr 210 ------- 0 25.0 26.0 26 46 0.00 90.00 39.90 116.40
- 1561.3830 24 26 cbr 210 ------- 0 25.0 26.0 26 46 0.00 90.00 39.90 116.40
r 1561.5112 24 26 cbr 210 ------- 0 25.0 26.0 26 46 0.00 90.00 39.90 116.40
+ 1572.0000 27 -1 cbr 210 ------- 1 27.0 28.0 14 47 0.00 10.00 -999.00 -999.00
- 1572.0000 27 -1 cbr 210 ------- 1 27.0 28.0 14 47 0.00 10.00 -999.00 -999.00
d 1572.0000 27 -1 cbr 210 ------- 1 27.0 28.0 14 47 0.00 10.00 -999.00 -999.00
+ 1621.2700 25 24 cbr 210 ------- 0 25.0 26.0 27 48 19.10 72.90 0.00 90.00
- 1621.2700 25 24 cbr 210 ------- 0 25.0 26.0 27 48 19.10 72.90 0.00 90.00
r 1621.3930 25 24 cbr 210 ------- 0 25.0 26.0 27 48 19.10 72.90 0.00 90.00
+ 1621.3930 24 26 cbr 210 ------- 0 25.0 26.0 27 48 0.00 90.00 39.90 116.40
- 1621.3930 24 26 cbr 210 ------- 0 25.0 26.0 27 48 0.00 90.00 39.90 116.40
r 1621.5212 24 26 cbr 210 ------- 0 25.0 26.0 27 48 0.00 90.00 39.90 116.40
+ 1662.5000 27 -1 cbr 210 ------- 1 27.0 28.0 15 49 0.00 10.00 -999.00 -999.00
- 1662.5000 27 -1 cbr 210 ------- 1 27.0 28.0 15 49 0.00 10.00 -999.00 -999.00
d 1662.5000 27 -1 cbr 210 ------- 1 27.0 28.0 15 49 0.00 10.00 -999.00 -999.00
+ 1681.2800 25 24 cbr 210 ------- 0 25.0 26.0 28 50 19.10 72.90 0.00 90.00
- 1681.2800 25 24 cbr 210 ------- 0 25.0 26.0 28 50 19.10 72.90 0.00 90.00
r 1681.4030 25 24 cbr 210 ------- 0 25.0 26.0 28 50 19.10 72.90 0.00 90.00
+ 1681.4030 24 26 cbr 210 ------- 0 25.0 26.0 28 50 0.00 90.00 39.90 116.40
- 1681.4030 24 26 cbr 210 ------- 0 25.0 26.0 28 50 0.00 90.00 39.90 116.40
r 1681.5312 24 26 cbr 210 ------- 0 25.0 26.0 28 50 0.00 90.00 39.90 116.40
+ 1741.2900 25 24 cbr 210 ------- 0 25.0 26.0 29 51 19.10 72.90 0.00 90.00
- 1741.2900 25 24 cbr 210 ------- 0 25.0 26.0 29 51 19.10 72.90 0.00 90.00
r 1741.4130 25 24 cbr 210 ------- 0 25.0 26.0 29 51 19.10 72.90 0.00 90.00
+ 1741.4130 24 26 cbr 210 ------- 0 25.0 26.0 29 51 0.00 90.00 39.90 116.40
- 1741.4130 24 26 cbr 210 ------- 0 25.0 26.0 29 51 0.00 90.00 39.90 116.40
r 1741.5412 24 26 cbr 210 ------- 0 25.0 26.0 29 51 0.00 90.00 39.90 116.40
+ 1753.0000 27 -1 cbr 210 ------- 1 27.0 28.0 16 52 0.00 10.00 -999.00 -999.00
- 1753.0000 27 -1 cbr 210 ------- 1 27.0 28.0 16 52 0.00 10.00 -999.00 -999.00
d 1753.0000 27 -1 cbr 210 ------- 1 27.0 28.0 16 52 0.00 10.00 -999.00 -999.00
+ 1801.3000 25 24 cbr 210 ------- 0 25.0 26.0 30 53 19.10 72.90 0.00 90.00
- 1801.3000 25 24 cbr 210 ------- 0 25.0 26.0 30 53 19.10 72.90 0.00 90.00
r 1801.4230 25 24 cbr 210 ------- 0 25.0 26.0 30 53 19.10 72.90 0.00 90.00
+ 1801.4230 24 26 cbr 210 ------- 0 25.0 26.0 30 53 0.00 90.00 39.90 116.40
- 1801.4230 24 26 cbr 210 ------- 0 25.0 26.0 30 53 0.00 90.00 39.90 116.40
r 1801.5512 24 26 cbr 210 ------- 0 25.0 26.0 30 53 0.00 90.00 39.90 116.40
+ 1810 32 26 cbr 210 ------- 0 32.0 29.0 6 54
- 1810 32 26 cbr 210 ------- 0 32.0 29.0 6 54
r 1810.002336 32 26 cbr 210 ------- 0 32.0 29.0 6 54
+ 1810.0023 26 24 cbr 210 ------- 0 32.0 29.0 6 54 39.90 116.40 0.00 90.00
- 1810.0023 26 24 cbr 210 ------- 0 32.0 29.0 6 54 39.90 116.40 0.00 90.00
r 1810.1305 26 24 cbr 210 ------- 0 32.0 29.0 6 54 39.90 116.40 0.00 90.00
+ 1810.1305 24 25 cbr 210 ------- 0 32.0 29.0 6 54 0.00 90.00 19.10 72.90
- 1810.1305 24 25 cbr 210 ------- 0 32.0 29.0 6 54 0.00 90.00 19.10 72.90
r 1810.2535 24 25 cbr 210 ------- 0 32.0 29.0 6 54 0.00 90.00 19.10 72.90
+ 1810.253487 25 30 cbr 210 ------- 0 32.0 29.0 6 54
- 1810.253487 25 30 cbr 210 ------- 0 32.0 29.0 6 54
r 1810.255823 25 30 cbr 210 ------- 0 32.0 29.0 6 54
+ 1810.255823 30 29 cbr 210 ------- 0 32.0 29.0 6 54
- 1810.255823 30 29 cbr 210 ------- 0 32.0 29.0 6 54
r 1810.258159 30 29 cbr 210 ------- 0 32.0 29.0 6 54
+ 1843.5000 27 -1 cbr 210 ------- 1 27.0 28.0 17 55 0.00 10.00 -999.00 -999.00
- 1843.5000 27 -1 cbr 210 ------- 1 27.0 28.0 17 55 0.00 10.00 -999.00 -999.00
d 1843.5000 27 -1 cbr 210 ------- 1 27.0 28.0 17 55 0.00 10.00 -999.00 -999.00
+ 1861.3100 25 24 cbr 210 ------- 0 25.0 26.0 31 56 19.10 72.90 0.00 90.00
- 1861.3100 25 24 cbr 210 ------- 0 25.0 26.0 31 56 19.10 72.90 0.00 90.00
r 1861.4330 25 24 cbr 210 ------- 0 25.0 26.0 31 56 19.10 72.90 0.00 90.00
+ 1861.4330 24 26 cbr 210 ------- 0 25.0 26.0 31 56 0.00 90.00 39.90 116.40
- 1861.4330 24 26 cbr 210 ------- 0 25.0 26.0 31 56 0.00 90.00 39.90 116.40
r 1861.5612 24 26 cbr 210 ------- 0 25.0 26.0 31 56 0.00 90.00 39.90 116.40
+ 1921.3200 25 24 cbr 210 ------- 0 25.0 26.0 32 57 19.10 72.90 0.00 90.00
- 1921.3200 25 24 cbr 210 ------- 0 25.0 26.0 32 57 19.10 72.90 0.00 90.00
r 1921.4430 25 24 cbr 210 ------- 0 25.0 26.0 32 57 19.10 72.90 0.00 90.00
+ 1921.4430 24 26 cbr 210 ------- 0 25.0 26.0 32 57 0.00 90.00 39.90 116.40
- 1921.4430 24 26 cbr 210 ------- 0 25.0 26.0 32 57 0.00 90.00 39.90 116.40
r 1921.5712 24 26 cbr 210 ------- 0 25.0 26.0 32 57 0.00 90.00 39.90 116.40
+ 1934.0000 27 -1 cbr 210 ------- 1 27.0 28.0 18 58 0.00 10.00 -999.00 -999.00
- 1934.0000 27 -1 cbr 210 ------- 1 27.0 28.0 18 58 0.00 10.00 -999.00 -999.00
d 1934.0000 27 -1 cbr 210 ------- 1 27.0 28.0 18 58 0.00 10.00 -999.00 -999.00
+ 1981.3300 25 24 cbr 210 ------- 0 25.0 26.0 33 59 19.10 72.90 0.00 90.00
- 1981.3300 25 24 cbr 210 ------- 0 25.0 26.0 33 59 19.10 72.90 0.00 90.00
r 1981.4530 25 24 cbr 210 ------- 0 25.0 26.0 33 59 19.10 72.90 0.00 90.00
+ 1981.4530 24 26 cbr 210 ------- 0 25.0 26.0 33 59 0.00 90.00 39.90 116.40
- 1981.4530 24 26 cbr 210 ------- 0 25.0 26.0 33 59 0.00 90.00 39.90 116.40
r 1981.5812 24 26 cbr 210 ------- 0 25.0 26.0 33 59 0.00 90.00 39.90 116.40
+ 2024.5000 27 -1 cbr 210 ------- 1 27.0 28.0 19 60 0.00 10.00 -999.00 -999.00
- 2024.5000 27 -1 cbr 210 ------- 1 27.0 28.0 19 60 0.00 10.00 -999.00 -999.00
d 2024.5000 27 -1 cbr 210 ------- 1 27.0 28.0 19 60 0.00 10.00 -999.00 -999.00
+ 2041.3400 25 24 cbr 210 ------- 0 25.0 26.0 34 61 19.10 72.90 0.00 90.00
- 2041.3400 25 24 cbr 210 ------- 0 25.0 26.0 34 61 19.10 72.90 0.00 90.00
r 2041.4630 25 24 cbr 210 ------- 0 25.0 26.0 34 61 19.10 72.90 0.00 90.00
+ 2041.4630 24 26 cbr 210 ------- 0 25.0 26.0 34 61 0.00 90.00 39.90 116.40
- 2041.4630 24 26 cbr 210 ------- 0 25.0 26.0 34 61 0.00 90.00 39.90 116.40
r 2041.5912 24 26 cbr 210 ------- 0 25.0 26.0 34 61 0.00 90.00 39.90 116.40
+ 2101.3500 25 24 cbr 210 ------- 0 25.0 26.0 35 62 19.10 72.90 0.00 90.00
- 2101.3500 25 24 cbr 210 ------- 0 25.0 26.0 35 62 19.10 72.90 0.00 90.00
r 2101.4730 25 24 cbr 210 ------- 0 25.0 26.0 35 62 19.10 72.90 0.00 90.00
+ 2101.4730 24 26 cbr 210 ------- 0 25.0 26.0 35 62 0.00 90.00 39.90 116.40
- 2101.4730 24 26 cbr 210 ------- 0 25.0 26.0 35 62 0.00 90.00 39.90 116.40
r 2101.6012 24 26 cbr 210 ------- 0 25.0 26.0 35 62 0.00 90.00 39.90 116.40
+ 2110 32 26 cbr 210 ------- 0 32.0 29.0 7 63
- 2110 32 26 cbr 210 ------- 0 32.0 29.0 7 63
r 2110.002336 32 26 cbr 210 ------- 0 32.0 29.0 7 63
+ 2110.0023 26 24 cbr 210 ------- 0 32.0 29.0 7 63 39.90 116.40 0.00 90.00
- 2110.0023 26 24 cbr 210 ------- 0 32.0 29.0 7 63 39.90 116.40 0.00 90.00
r 2110.1305 26 24 cbr 210 ------- 0 32.0 29.0 7 63 39.90 116.40 0.00 90.00
+ 2110.1305 24 25 cbr 210 ------- 0 32.0 29.0 7 63 0.00 90.00 19.10 72.90
- 2110.1305 24 25 cbr 210 ------- 0 32.0 29.0 7 63 0.00 90.00 19.10 72.90
r 2110.2535 24 25 cbr 210 ------- 0 32.0 29.0 7 63 0.00 90.00 19.10 72.90
+ 2110.253487 25 30 cbr 210 ------- 0 32.0 29.0 7 63
- 2110.253487 25 30 cbr 210 ------- 0 32.0 29.0 7 63
r 2110.255823 25 30 cbr 210 ------- 0 32.0 29.0 7 63
+ 2110.255823 30 29 cbr 210 ------- 0 32.0 29.0 7 63
- 2110.255823 30 29 cbr 210 ------- 0 32.0 29.0 7 63
r 2110.258159 30 29 cbr 210 ------- 0 32.0 29.0 7 63
+ 2115.0000 27 -1 cbr 210 ------- 1 27.0 28.0 20 64 0.00 10.00 -999.00 -999.00
- 2115.0000 27 -1 cbr 210 ------- 1 27.0 28.0 20 64 0.00 10.00 -999.00 -999.00
d 2115.0000 27 -1 cbr 210 ------- 1 27.0 28.0 20 64 0.00 10.00 -999.00 -999.00
+ 2161.3600 25 24 cbr 210 ------- 0 25.0 26.0 36 65 19.10 72.90 0.00 90.00
- 2161.3600 25 24 cbr 210 ------- 0 25.0 26.0 36 65 19.10 72.90 0.00 90.00
r 2161.4830 25 24 cbr 210 ------- 0 25.0 26.0 36 65 19.10 72.90 0.00 90.00
+ 2161.4830 24 26 cbr 210 ------- 0 25.0 26.0 36 65 0.00 90.00 39.90 116.40
- 2161.4830 24 26 cbr 210 ------- 0 25.0 26.0 36 65 0.00 90.00 39.90 116.40
r 2161.6112 24 26 cbr 210 ------- 0 25.0 26.0 36 65 0.00 90.00 39.90 116.40
+ 2205.5000 27 -1 cbr 210 ------- 1 27.0 28.0 21 66 0.00 10.00 -999.00 -999.00
- 2205.5000 27 -1 cbr 210 ------- 1 27.0 28.0 21 66 0.00 10.00 -999.00 -999.00
d 2205.5000 27 -1 cbr 210 ------- 1 27.0 28.0 21 66 0.00 10.00 -999.00 -999.00
+ 2221.3700 25 24 cbr 210 ------- 0 25.0 26.0 37 67 19.10 72.90 0.00 90.00
- 2221.3700 25 24 cbr 210 ------- 0 25.0 26.0 37 67 19.10 72.90 0.00 90.00
r 2221.4930 25 24 cbr 210 ------- 0 25.0 26.0 37 67 19.10 72.90 0.00 90.00
+ 2221.4930 24 26 cbr 210 ------- 0 25.0 26.0 37 67 0.00 90.00 39.90 116.40
- 2221.4930 24 26 cbr 210 ------- 0 25.0 26.0 37 67 0.00 90.00 39.90 116.40
r 2221.6212 24 26 cbr 210 ------- 0 25.0 26.0 37 67 0.00 90.00 39.90 116.40
+ 2281.3800 25 24 cbr 210 ------- 0 25.0 26.0 38 68 19.10 72.90 0.00 90.00
- 2281.3800 25 24 cbr 210 ------- 0 25.0 26.0 38 68 19.10 72.90 0.00 90.00
r 2281.5030 25 24 cbr 210 ------- 0 25.0 26.0 38 68 19.10 72.90 0.00 90.00
+ 2281.5030 24 26 cbr 210 ------- 0 25.0 26.0 38 68 0.00 90.00 39.90 116.40
- 2281.5030 24 26 cbr 210 ------- 0 25.0 26.0 38 68 0.00 90.00 39.90 116.40
r 2281.6312 24 26 cbr 210 ------- 0 25.0 26.0 38 68 0.00 90.00 39.90 116.40
+ 2296.0000 27 -1 cbr 210 ------- 1 27.0 28.0 22 69 0.00 10.00 -999.00 -999.00
- 2296.0000 27 -1 cbr 210 ------- 1 27.0 28.0 22 69 0.00 10.00 -999.00 -999.00